/*--------------------------------*- C++ -*----------------------------------*\
| =========                 |                                                 |
| \\      /  F ield         | OpenFOAM: The Open Source CFD Toolbox           |
|  \\    /   O peration     | Version:  3.0.1                                 |
|   \\  /    A nd           | Web:      www.OpenFOAM.org                      |
|    \\/     M anipulation  |                                                 |
\*---------------------------------------------------------------------------*/
FoamFile
{
    version     2.0;
    format      ascii;
    class       volVectorField;
    location    "0.3";
    object      U;
}
// * * * * * * * * * * * * * * * * * * * * * * * * * * * * * * * * * * * * * //

dimensions      [0 1 -1 0 0 0 0];

internalField   nonuniform List<vector> 
20
(
(-0.0177773 0.0178053 0)
(-0.054683 0.0201161 0)
(-0.0744356 0.00231423 0)
(-0.0570203 -0.0174792 0)
(-0.0191187 -0.0182451 0)
(-0.035658 0.0830775 0)
(-0.102114 0.0781909 0)
(-0.130351 0.00353441 0)
(-0.103007 -0.0777815 0)
(-0.0356865 -0.0907881 0)
(-0.0310759 0.192201 0)
(-0.0921719 0.144731 0)
(-0.100163 -0.00325212 0)
(-0.0862748 -0.152786 0)
(-0.0202226 -0.20204 0)
(0.201317 0.130843 0)
(0.23423 0.100242 0)
(0.284769 0.0153871 0)
(0.243564 -0.0777076 0)
(0.210761 -0.124909 0)
)
;

boundaryField
{
    movingWall
    {
        type            fixedValue;
        value           uniform (1 0 0);
    }
    fixedWalls
    {
        type            fixedValue;
        value           uniform (0 0 0);
    }
    frontAndBack
    {
        type            empty;
    }
}


// ************************************************************************* //
