# Probe 0 (0.0254 0.0253 0)
# Probe 1 (0.0508 0.0253 0)
# Probe 2 (0.0762 0.0253 0)
# Probe 3 (0.01016 0.0253 0)
# Probe 4 (0.0127 0.0253 0)
# Probe 5 (0.01524 0.0253 0)
# Probe 6 (0.01778 0.0253 0)
#       Probe             0             1             2             3             4             5             6
#        Time
          0.5   -0.00551574     0.0474006      0.105107     -0.020518     -0.020518     -0.020518     -0.020518
