# Probe 0 (0.0254 0.0253 0)
# Probe 1 (0.0508 0.0253 0)
# Probe 2 (0.0762 0.0253 0)
# Probe 3 (0.01016 0.0253 0)
# Probe 4 (0.0127 0.0253 0)
# Probe 5 (0.01524 0.0253 0)
# Probe 6 (0.01778 0.0253 0)
#       Probe             0             1             2             3             4             5             6
#        Time
          0.5             (-0.102114 0.0781917 0)             (-0.130352 0.00353438 0)             (-0.103007 -0.0777824 0)             (-0.0356581 0.0830782 0)             (-0.0356581 0.0830782 0)             (-0.0356581 0.0830782 0)             (-0.0356581 0.0830782 0)
