/*--------------------------------*- C++ -*----------------------------------*\
| =========                 |                                                 |
| \\      /  F ield         | OpenFOAM: The Open Source CFD Toolbox           |
|  \\    /   O peration     | Version:  3.0.1                                 |
|   \\  /    A nd           | Web:      www.OpenFOAM.org                      |
|    \\/     M anipulation  |                                                 |
\*---------------------------------------------------------------------------*/
FoamFile
{
    version     2.0;
    format      ascii;
    class       volVectorField;
    location    "0.1";
    object      U;
}
// * * * * * * * * * * * * * * * * * * * * * * * * * * * * * * * * * * * * * //

dimensions      [0 1 -1 0 0 0 0];

internalField   nonuniform List<vector> 
20
(
(-0.0174554 0.0173847 0)
(-0.0533808 0.0193482 0)
(-0.0724597 0.0021213 0)
(-0.0556421 -0.0169324 0)
(-0.018737 -0.0178622 0)
(-0.0351889 0.0815736 0)
(-0.100432 0.076054 0)
(-0.128056 0.00356748 0)
(-0.101405 -0.0753157 0)
(-0.0351744 -0.0889502 0)
(-0.0313027 0.190389 0)
(-0.0928968 0.142093 0)
(-0.101341 -0.00324016 0)
(-0.087153 -0.149886 0)
(-0.0204317 -0.199759 0)
(0.200806 0.130052 0)
(0.232461 0.0986421 0)
(0.281872 0.0145551 0)
(0.241171 -0.0772443 0)
(0.210003 -0.12425 0)
)
;

boundaryField
{
    movingWall
    {
        type            fixedValue;
        value           uniform (1 0 0);
    }
    fixedWalls
    {
        type            fixedValue;
        value           uniform (0 0 0);
    }
    frontAndBack
    {
        type            empty;
    }
}


// ************************************************************************* //
