/*--------------------------------*- C++ -*----------------------------------*\
| =========                 |                                                 |
| \\      /  F ield         | OpenFOAM: The Open Source CFD Toolbox           |
|  \\    /   O peration     | Version:  3.0.1                                 |
|   \\  /    A nd           | Web:      www.OpenFOAM.org                      |
|    \\/     M anipulation  |                                                 |
\*---------------------------------------------------------------------------*/
FoamFile
{
    version     2.0;
    format      ascii;
    class       volVectorField;
    location    "0.2";
    object      U;
}
// * * * * * * * * * * * * * * * * * * * * * * * * * * * * * * * * * * * * * //

dimensions      [0 1 -1 0 0 0 0];

internalField   nonuniform List<vector> 
20
(
(-0.0177703 0.0177951 0)
(-0.0546564 0.0200998 0)
(-0.074397 0.00231134 0)
(-0.056994 -0.0174668 0)
(-0.0191114 -0.0182367 0)
(-0.0356509 0.0830481 0)
(-0.102088 0.0781522 0)
(-0.130317 0.00353796 0)
(-0.102983 -0.0777346 0)
(-0.0356787 -0.0907547 0)
(-0.0310821 0.192172 0)
(-0.0921914 0.144688 0)
(-0.100192 -0.00325357 0)
(-0.0862947 -0.152742 0)
(-0.0202269 -0.202006 0)
(0.20131 0.130834 0)
(0.234204 0.100221 0)
(0.284727 0.0153765 0)
(0.243529 -0.0777015 0)
(0.210751 -0.124901 0)
)
;

boundaryField
{
    movingWall
    {
        type            fixedValue;
        value           uniform (1 0 0);
    }
    fixedWalls
    {
        type            fixedValue;
        value           uniform (0 0 0);
    }
    frontAndBack
    {
        type            empty;
    }
}


// ************************************************************************* //
