/*--------------------------------*- C++ -*----------------------------------*\
| =========                 |                                                 |
| \\      /  F ield         | OpenFOAM: The Open Source CFD Toolbox           |
|  \\    /   O peration     | Version:  3.0.1                                 |
|   \\  /    A nd           | Web:      www.OpenFOAM.org                      |
|    \\/     M anipulation  |                                                 |
\*---------------------------------------------------------------------------*/
FoamFile
{
    version     2.0;
    format      ascii;
    class       surfaceScalarField;
    location    "0.5";
    object      phi;
}
// * * * * * * * * * * * * * * * * * * * * * * * * * * * * * * * * * * * * * //

dimensions      [0 3 -1 0 0 0 0];

internalField   nonuniform List<scalar> 
31
(
-8.32801e-06
8.328e-06
-1.71037e-05
8.77573e-06
-1.75249e-05
4.21205e-07
-8.95282e-06
-8.5721e-06
-8.9528e-06
-1.64599e-05
2.47879e-05
-3.02129e-05
2.25287e-05
-3.02963e-05
5.04572e-07
-1.73487e-05
-2.15197e-05
-2.63015e-05
-1.77427e-05
4.25306e-05
-2.33444e-05
2.81304e-05
-2.35542e-05
7.14429e-07
-1.72086e-05
-2.78653e-05
-4.35101e-05
4.25306e-05
7.0661e-05
7.13755e-05
4.35101e-05
)
;

boundaryField
{
    movingWall
    {
        type            calculated;
        value           uniform 0;
    }
    fixedWalls
    {
        type            calculated;
        value           uniform 0;
    }
    frontAndBack
    {
        type            empty;
        value           nonuniform 0();
    }
}


// ************************************************************************* //
