/*--------------------------------*- C++ -*----------------------------------*\
| =========                 |                                                 |
| \\      /  F ield         | OpenFOAM: The Open Source CFD Toolbox           |
|  \\    /   O peration     | Version:  3.0.1                                 |
|   \\  /    A nd           | Web:      www.OpenFOAM.org                      |
|    \\/     M anipulation  |                                                 |
\*---------------------------------------------------------------------------*/
FoamFile
{
    version     2.0;
    format      ascii;
    class       volVectorField;
    location    "0.5";
    object      U;
}
// * * * * * * * * * * * * * * * * * * * * * * * * * * * * * * * * * * * * * //

dimensions      [0 1 -1 0 0 0 0];

internalField   nonuniform List<vector> 
20
(
(-0.0177774 0.0178056 0)
(-0.0546834 0.0201165 0)
(-0.0744364 0.00231433 0)
(-0.0570208 -0.0174794 0)
(-0.0191188 -0.0182452 0)
(-0.0356581 0.0830782 0)
(-0.102114 0.0781917 0)
(-0.130352 0.00353438 0)
(-0.103007 -0.0777824 0)
(-0.0356867 -0.0907887 0)
(-0.0310757 0.192202 0)
(-0.0921714 0.144732 0)
(-0.100162 -0.0032521 0)
(-0.0862744 -0.152786 0)
(-0.0202225 -0.20204 0)
(0.201317 0.130843 0)
(0.23423 0.100242 0)
(0.28477 0.0153872 0)
(0.243564 -0.0777077 0)
(0.210761 -0.12491 0)
)
;

boundaryField
{
    movingWall
    {
        type            fixedValue;
        value           uniform (1 0 0);
    }
    fixedWalls
    {
        type            fixedValue;
        value           uniform (0 0 0);
    }
    frontAndBack
    {
        type            empty;
    }
}


// ************************************************************************* //
