/*--------------------------------*- C++ -*----------------------------------*\
| =========                 |                                                 |
| \\      /  F ield         | OpenFOAM: The Open Source CFD Toolbox           |
|  \\    /   O peration     | Version:  3.0.1                                 |
|   \\  /    A nd           | Web:      www.OpenFOAM.org                      |
|    \\/     M anipulation  |                                                 |
\*---------------------------------------------------------------------------*/
FoamFile
{
    version     2.0;
    format      ascii;
    class       surfaceScalarField;
    location    "0.1";
    object      phi;
}
// * * * * * * * * * * * * * * * * * * * * * * * * * * * * * * * * * * * * * //

dimensions      [0 3 -1 0 0 0 0];

internalField   nonuniform List<scalar> 
31
(
-8.16385e-06
8.16385e-06
-1.66689e-05
8.50501e-06
-1.70747e-05
4.05845e-07
-8.76836e-06
-8.30635e-06
-8.76836e-06
-1.62492e-05
2.4413e-05
-2.96995e-05
2.19553e-05
-2.97936e-05
4.99952e-07
-1.71017e-05
-2.09982e-05
-2.58701e-05
-1.78668e-05
4.22798e-05
-2.36489e-05
2.77374e-05
-2.38098e-05
6.60815e-07
-1.73178e-05
-2.74902e-05
-4.31879e-05
4.22798e-05
7.00173e-05
7.06781e-05
4.31879e-05
)
;

boundaryField
{
    movingWall
    {
        type            calculated;
        value           uniform 0;
    }
    fixedWalls
    {
        type            calculated;
        value           uniform 0;
    }
    frontAndBack
    {
        type            empty;
        value           nonuniform 0();
    }
}


// ************************************************************************* //
